
     Program PWSCF v.7.4.1 starts on 21Jul2025 at 21: 6:35 

     This program is part of the open-source Quantum ESPRESSO suite
     for quantum simulation of materials; please cite
         "P. Giannozzi et al., J. Phys.:Condens. Matter 21 395502 (2009);
         "P. Giannozzi et al., J. Phys.:Condens. Matter 29 465901 (2017);
         "P. Giannozzi et al., J. Chem. Phys. 152 154105 (2020);
          URL http://www.quantum-espresso.org", 
     in publications or presentations arising from this work. More details at
     http://www.quantum-espresso.org/quote

     Serial version
     1297 MiB available memory on the printing compute node when the environment starts

     Reading input from espresso.pwi
Warning: card &FCP ignored
Warning: card / ignored
Warning: card &RISM ignored
Warning: card / ignored

     Current dimensions of program PWSCF are:
     Max number of different atomic species (ntypx) = 10
     Max number of k-points (npk) =  40000
     Max angular momentum in pseudopotentials (lmaxx) =  4

     IMPORTANT: XC functional enforced from input :
     Exchange-correlation= PBE
                           (   1   4   3   4   0   0   0)
     Any further DFT definition will be discarded
     Please, verify this is what you really want

     Message from routine setup:
     using ibrav=0 with symmetry is DISCOURAGED, use correct ibrav instead


     G-vector sticks info
     --------------------
     sticks:   dense  smooth     PW     G-vecs:    dense   smooth      PW
     Sum        1189     595    169               452969   160249   25275

     Using Slab Decomposition



     bravais-lattice index     =            0
     lattice parameter (alat)  =       6.0093  a.u.
     unit-cell volume          =    2552.4937 (a.u.)^3
     number of atoms/cell      =            3
     number of atomic types    =            2
     number of electrons       =        26.00
     number of Kohn-Sham states=           13
     kinetic-energy cutoff     =      60.0000  Ry
     charge density cutoff     =     480.0000  Ry
     scf convergence threshold =      1.0E-08
     mixing beta               =       0.7000
     number of iterations used =            8  plain     mixing
     energy convergence thresh.=      1.0E-04
     force convergence thresh. =      1.0E-03
     press convergence thresh. =      5.0E-01
     Exchange-correlation= PBE
                           (   1   4   3   4   0   0   0)
     nstep                     =           50


     celldm(1)=   6.009329  celldm(2)=   0.000000  celldm(3)=   0.000000
     celldm(4)=   0.000000  celldm(5)=   0.000000  celldm(6)=   0.000000

     crystal axes: (cart. coord. in units of alat)
               a(1) = (   1.000000   0.000000   0.000000 )  
               a(2) = (  -0.500000   0.866025   0.000000 )  
               a(3) = (   0.000000   0.000000  13.581761 )  

     reciprocal axes: (cart. coord. in units 2 pi/alat)
               b(1) = (  1.000000  0.577350 -0.000000 )  
               b(2) = (  0.000000  1.154701  0.000000 )  
               b(3) = (  0.000000 -0.000000  0.073628 )  


     PseudoPot. # 1 for Mo read from file:
     /home/gu/projects/PymatgenTest/outputs/Mo.upf
     MD5 check sum: e9ff66a0a2b2a26e33b0f56142110bb0
     Pseudo is Norm-conserving, Zval = 14.0
     Generated using ONCVPSP code by D. R. Hamann
     Using radial grid of 1526 points,  6 beta functions with: 
                l(1) =   0
                l(2) =   0
                l(3) =   1
                l(4) =   1
                l(5) =   2
                l(6) =   2

     PseudoPot. # 2 for S  read from file:
     /home/gu/projects/PymatgenTest/outputs/S.upf
     MD5 check sum: 88d86576ff6df21479756cfb9bdac1df
     Pseudo is Ultrasoft + core correction, Zval =  6.0
     Generated by new atomic code, or converted to UPF format
     Using radial grid of  907 points,  6 beta functions with: 
                l(1) =   0
                l(2) =   0
                l(3) =   1
                l(4) =   1
                l(5) =   2
                l(6) =   2
     Q(r) pseudized with  8 coefficients,  rinner =    1.300   1.300   1.300
                                                       1.300   1.300

     atomic species   valence    mass     pseudopotential
     Mo               14.00    95.95000     Mo( 1.00)
     S                 6.00    32.06000     S ( 1.00)

     12 Sym. Ops. (no inversion) found



   Cartesian axes

     site n.     atom                  positions (alat units)
         1        Mo     tau(   1) = (   0.0000000   0.0000000   6.7908805  )
         2        S      tau(   2) = (   0.5000000   0.2886751   7.2924528  )
         3        S      tau(   3) = (   0.5000000   0.2886751   6.2893082  )

     number of k points=    10
                       cart. coord. in units 2pi/alat
        k(    1) = (   0.0000000   0.0000000   0.0000000), wk =   0.0312500
        k(    2) = (   0.0000000   0.1443376   0.0000000), wk =   0.1875000
        k(    3) = (   0.0000000   0.2886751   0.0000000), wk =   0.1875000
        k(    4) = (   0.0000000   0.4330127   0.0000000), wk =   0.1875000
        k(    5) = (   0.0000000  -0.5773503   0.0000000), wk =   0.0937500
        k(    6) = (   0.1250000   0.2165064   0.0000000), wk =   0.1875000
        k(    7) = (   0.1250000   0.3608439   0.0000000), wk =   0.3750000
        k(    8) = (   0.1250000   0.5051815   0.0000000), wk =   0.3750000
        k(    9) = (   0.2500000   0.4330127   0.0000000), wk =   0.1875000
        k(   10) = (   0.2500000   0.5773503   0.0000000), wk =   0.1875000

     Dense  grid:   452969 G-vectors     FFT dimensions: (  45,  45, 576)

     Smooth grid:   160249 G-vectors     FFT dimensions: (  30,  30, 405)

     Estimated max dynamical RAM per process >       1.70 GB

     Initial potential from superposition of free atoms

     starting charge      25.9989, renormalised to      26.0000

     negative rho (up, down):  1.040E-05 0.000E+00
     Starting wfcs are   18 randomized atomic wfcs

     total cpu time spent up to now is        5.3 secs

     Self-consistent Calculation

     iteration #  1     ecut=    60.00 Ry     beta= 0.70
     Davidson diagonalization with overlap
     ethr =  1.00E-02,  avg # of iterations =  2.0

     Threshold (ethr) on eigenvalues was too large:
     Diagonalizing with lowered threshold

     Davidson diagonalization with overlap
     ethr =  2.93E-04,  avg # of iterations =  3.6

     negative rho (up, down):  1.016E-06 0.000E+00

     total cpu time spent up to now is       22.5 secs

     total energy              =    -185.49566003 Ry
     estimated scf accuracy    <       0.10771832 Ry

     iteration #  2     ecut=    60.00 Ry     beta= 0.70
     Davidson diagonalization with overlap
     ethr =  4.14E-04,  avg # of iterations =  4.9

     negative rho (up, down):  1.270E-05 0.000E+00

     total cpu time spent up to now is       34.0 secs

     total energy              =    -185.47921089 Ry
     estimated scf accuracy    <       0.26071250 Ry

     iteration #  3     ecut=    60.00 Ry     beta= 0.70
     Davidson diagonalization with overlap
     ethr =  4.14E-04,  avg # of iterations =  5.8

     negative rho (up, down):  9.169E-06 0.000E+00

     total cpu time spent up to now is       44.8 secs

     total energy              =    -185.53163021 Ry
     estimated scf accuracy    <       0.03123048 Ry

     iteration #  4     ecut=    60.00 Ry     beta= 0.70
     Davidson diagonalization with overlap
     ethr =  1.20E-04,  avg # of iterations =  3.2

     negative rho (up, down):  8.561E-06 0.000E+00

     total cpu time spent up to now is       53.9 secs

     total energy              =    -185.53451620 Ry
     estimated scf accuracy    <       0.00292702 Ry

     iteration #  5     ecut=    60.00 Ry     beta= 0.70
     Davidson diagonalization with overlap
     ethr =  1.13E-05,  avg # of iterations =  5.4

     negative rho (up, down):  8.875E-06 0.000E+00

     total cpu time spent up to now is       65.8 secs

     total energy              =    -185.53642487 Ry
     estimated scf accuracy    <       0.00565509 Ry

     iteration #  6     ecut=    60.00 Ry     beta= 0.70
     Davidson diagonalization with overlap
     ethr =  1.13E-05,  avg # of iterations =  1.9

     negative rho (up, down):  9.214E-06 0.000E+00

     total cpu time spent up to now is       74.6 secs

     total energy              =    -185.53499699 Ry
     estimated scf accuracy    <       0.00274192 Ry

     iteration #  7     ecut=    60.00 Ry     beta= 0.70
     Davidson diagonalization with overlap
     ethr =  1.05E-05,  avg # of iterations =  5.7

     negative rho (up, down):  9.122E-06 0.000E+00

     total cpu time spent up to now is       85.8 secs

     total energy              =    -185.53697017 Ry
     estimated scf accuracy    <       0.00687178 Ry

     iteration #  8     ecut=    60.00 Ry     beta= 0.70
     Davidson diagonalization with overlap
     ethr =  1.05E-05,  avg # of iterations =  1.0

     negative rho (up, down):  9.085E-06 0.000E+00

     total cpu time spent up to now is       93.5 secs

     total energy              =    -185.53613913 Ry
     estimated scf accuracy    <       0.00523967 Ry

     iteration #  9     ecut=    60.00 Ry     beta= 0.70
     Davidson diagonalization with overlap
     ethr =  1.05E-05,  avg # of iterations =  3.4

     negative rho (up, down):  9.151E-06 0.000E+00

     total cpu time spent up to now is      102.0 secs

     total energy              =    -185.53618993 Ry
     estimated scf accuracy    <       0.00129149 Ry

     iteration # 10     ecut=    60.00 Ry     beta= 0.70
     Davidson diagonalization with overlap
     ethr =  4.97E-06,  avg # of iterations =  4.0

     negative rho (up, down):  9.215E-06 0.000E+00

     total cpu time spent up to now is      110.7 secs

     total energy              =    -185.53636132 Ry
     estimated scf accuracy    <       0.00006346 Ry

     iteration # 11     ecut=    60.00 Ry     beta= 0.70
     Davidson diagonalization with overlap
     ethr =  2.44E-07,  avg # of iterations =  6.2

     negative rho (up, down):  9.286E-06 0.000E+00

     total cpu time spent up to now is      122.0 secs

     total energy              =    -185.53642422 Ry
     estimated scf accuracy    <       0.00014905 Ry

     iteration # 12     ecut=    60.00 Ry     beta= 0.70
     Davidson diagonalization with overlap
     ethr =  2.44E-07,  avg # of iterations =  2.2

     negative rho (up, down):  9.303E-06 0.000E+00

     total cpu time spent up to now is      131.9 secs

     total energy              =    -185.53641366 Ry
     estimated scf accuracy    <       0.00005468 Ry

     iteration # 13     ecut=    60.00 Ry     beta= 0.70
     Davidson diagonalization with overlap
     ethr =  2.10E-07,  avg # of iterations =  4.2

     negative rho (up, down):  9.299E-06 0.000E+00

     total cpu time spent up to now is      141.7 secs

     total energy              =    -185.53642957 Ry
     estimated scf accuracy    <       0.00000337 Ry

     iteration # 14     ecut=    60.00 Ry     beta= 0.70
     Davidson diagonalization with overlap
     ethr =  1.30E-08,  avg # of iterations =  5.0

     negative rho (up, down):  9.309E-06 0.000E+00

     total cpu time spent up to now is      152.7 secs

     total energy              =    -185.53642909 Ry
     estimated scf accuracy    <       0.00002006 Ry

     iteration # 15     ecut=    60.00 Ry     beta= 0.70
     Davidson diagonalization with overlap
     ethr =  1.30E-08,  avg # of iterations =  2.1

     negative rho (up, down):  9.306E-06 0.000E+00

     total cpu time spent up to now is      161.0 secs

     total energy              =    -185.53642678 Ry
     estimated scf accuracy    <       0.00001155 Ry

     iteration # 16     ecut=    60.00 Ry     beta= 0.70
     Davidson diagonalization with overlap
     ethr =  1.30E-08,  avg # of iterations =  4.8

     negative rho (up, down):  9.311E-06 0.000E+00

     total cpu time spent up to now is      172.3 secs

     total energy              =    -185.53642830 Ry
     estimated scf accuracy    <       0.00000014 Ry

     iteration # 17     ecut=    60.00 Ry     beta= 0.70
     Davidson diagonalization with overlap
     ethr =  5.24E-10,  avg # of iterations =  5.2

     negative rho (up, down):  9.315E-06 0.000E+00

     total cpu time spent up to now is      182.7 secs

     End of self-consistent calculation

          k = 0.0000 0.0000 0.0000 ( 20139 PWs)   bands (ev):

   -64.4989 -38.6346 -38.4222 -38.4222 -17.6090 -16.4095  -9.1434  -6.0476
    -6.0476  -5.4717  -4.9770  -4.9770  -3.7370

          k = 0.0000 0.1443 0.0000 ( 20121 PWs)   bands (ev):

   -64.4934 -38.6239 -38.4770 -38.4347 -17.3842 -16.3096  -8.8856  -6.5366
    -6.1608  -5.8149  -5.3170  -4.6885  -3.8496

          k = 0.0000 0.2887 0.0000 ( 20049 PWs)   bands (ev):

   -64.4803 -38.6076 -38.5982 -38.4649 -16.7894 -16.0469  -8.4784  -7.3312
    -7.1257  -5.9565  -5.2405  -4.9977  -4.3677

          k = 0.0000 0.4330 0.0000 ( 19997 PWs)   bands (ev):

   -64.4671 -38.7355 -38.5723 -38.4949 -16.0839 -15.7446  -8.9389  -8.0018
    -7.4863  -6.4555  -5.4212  -4.6874  -4.5332

          k = 0.0000-0.5774 0.0000 ( 19992 PWs)   bands (ev):

   -64.4616 -38.7877 -38.5615 -38.5073 -15.7395 -15.6038  -9.3049  -8.3732
    -7.6045  -6.6364  -5.5612  -4.4880  -4.2521

          k = 0.1250 0.2165 0.0000 ( 20103 PWs)   bands (ev):

   -64.4841 -38.6057 -38.5636 -38.4622 -16.9730 -16.1268  -8.5080  -7.1466
    -6.7103  -6.1652  -5.4906  -4.5716  -4.1773

          k = 0.1250 0.3608 0.0000 ( 20063 PWs)   bands (ev):

   -64.4710 -38.6794 -38.5799 -38.5056 -16.3108 -15.8343  -8.5525  -7.6280
    -7.3606  -6.7161  -5.4653  -4.9505  -4.3856

          k = 0.1250 0.5052 0.0000 ( 19985 PWs)   bands (ev):

   -64.4616 -38.7594 -38.5615 -38.5368 -15.7546 -15.5944  -9.0063  -8.3997
    -7.4760  -6.7216  -5.4777  -5.4531  -4.0546

          k = 0.2500 0.4330 0.0000 ( 20021 PWs)   bands (ev):

   -64.4616 -38.7203 -38.5771 -38.5616 -15.7694 -15.5849  -8.6243  -8.4206
    -7.1641  -6.8278  -6.4576  -5.3045  -4.0807

          k = 0.2500 0.5774 0.0000 ( 19950 PWs)   bands (ev):

   -64.4578 -38.7245 -38.6194 -38.5540 -15.5212 -15.4670  -8.8072  -8.4914
    -7.4287  -6.7816  -6.5964  -5.7036  -3.7211

     highest occupied level (ev):    -3.7211

!    total energy              =    -185.53642839 Ry
     estimated scf accuracy    <          9.6E-09 Ry

     The total energy is the sum of the following terms:
     one-electron contribution =   -3058.45069154 Ry
     hartree contribution      =    1526.66023053 Ry
     xc contribution           =     -32.51593196 Ry
     ewald contribution        =    1378.76996458 Ry

     convergence has been achieved in  17 iterations

     negative rho (up, down):  9.315E-06 0.000E+00

     Forces acting on atoms (cartesian axes, Ry/au):

     atom    1 type  1   force =     0.00000000   -0.00000000    0.00000000
     atom    2 type  2   force =     0.00000000   -0.00000000   -0.02137900
     atom    3 type  2   force =    -0.00000000   -0.00000000    0.02137900

     Total force =     0.030234     Total SCF correction =     0.000206


     Computing stress (Cartesian axis) and pressure


     negative rho (up, down):  9.315E-06 0.000E+00
          total   stress  (Ry/bohr**3)                   (kbar)     P=       -3.81
  -0.00001340   0.00000000  -0.00000000           -1.97        0.00       -0.00
   0.00000000  -0.00001340  -0.00000000            0.00       -1.97       -0.00
  -0.00000000  -0.00000000  -0.00005082           -0.00       -0.00       -7.48


     BFGS Geometry Optimization
     Energy error            =      1.1E-03 Ry
     Gradient error          =      2.1E-02 Ry/Bohr
     Cell gradient error     =      7.5E+00 kbar

     number of scf cycles    =   1
     number of bfgs steps    =   0

     enthalpy           new  =    -185.5364283857 Ry

     new trust radius        =       0.0213789984 bohr
     new conv_thr            =       0.0000000100 Ry

     new unit-cell volume =   2547.54307 a.u.^3 (   377.50694 Ang^3 )
     density =      0.70410 g/cm^3

CELL_PARAMETERS (angstrom)
   3.178934839   0.000000000  -0.000000000
  -1.589467419   2.753038328  -0.000000000
  -0.000000000  -0.000000000  43.135123992

ATOMIC_POSITIONS (angstrom)
Mo              -0.0000000000       -0.0000000000       21.5675619958
S                1.5894674195        0.9176794425       23.1492365289
S                1.5894674195        0.9176794425       19.9858874627



     Writing config-only to output data dir /tmp/MoS2_single.save/ :
     XML data file
     NEW-OLD atomic charge density approx. for the potential
     New effective cutoffs (rho, wfc):  480.98   60.15

     negative rho (up, down):  8.788E-06 0.000E+00

     total cpu time spent up to now is      203.1 secs

     Self-consistent Calculation

     iteration #  1     ecut=    60.00 Ry     beta= 0.70
     Davidson diagonalization with overlap
     ethr =  1.00E-06,  avg # of iterations =  7.4

     negative rho (up, down):  8.854E-06 0.000E+00

     total cpu time spent up to now is      216.5 secs

     total energy              =    -185.53727577 Ry
     estimated scf accuracy    <       0.00003382 Ry

     iteration #  2     ecut=    60.00 Ry     beta= 0.70
     Davidson diagonalization with overlap
     ethr =  1.30E-07,  avg # of iterations =  5.4

     negative rho (up, down):  1.004E-05 0.000E+00

     total cpu time spent up to now is      228.0 secs

     total energy              =    -185.53726806 Ry
     estimated scf accuracy    <       0.00008679 Ry

     iteration #  3     ecut=    60.00 Ry     beta= 0.70
     Davidson diagonalization with overlap
     ethr =  1.30E-07,  avg # of iterations =  5.7

     negative rho (up, down):  9.643E-06 0.000E+00

     total cpu time spent up to now is      238.8 secs

     total energy              =    -185.53728891 Ry
     estimated scf accuracy    <       0.00001237 Ry

     iteration #  4     ecut=    60.00 Ry     beta= 0.70
     Davidson diagonalization with overlap
     ethr =  4.76E-08,  avg # of iterations =  2.6

     negative rho (up, down):  9.649E-06 0.000E+00

     total cpu time spent up to now is      247.9 secs

     total energy              =    -185.53728917 Ry
     estimated scf accuracy    <       0.00000311 Ry

     iteration #  5     ecut=    60.00 Ry     beta= 0.70
     Davidson diagonalization with overlap
     ethr =  1.20E-08,  avg # of iterations =  4.6

     negative rho (up, down):  9.662E-06 0.000E+00

     total cpu time spent up to now is      257.8 secs

     total energy              =    -185.53728998 Ry
     estimated scf accuracy    <       0.00000002 Ry

     iteration #  6     ecut=    60.00 Ry     beta= 0.70
     Davidson diagonalization with overlap
     ethr =  8.89E-11,  avg # of iterations =  7.1

     negative rho (up, down):  9.668E-06 0.000E+00

     total cpu time spent up to now is      270.4 secs

     total energy              =    -185.53729003 Ry
     estimated scf accuracy    <       0.00000010 Ry

     iteration #  7     ecut=    60.00 Ry     beta= 0.70
     Davidson diagonalization with overlap
     ethr =  8.89E-11,  avg # of iterations =  5.4

     negative rho (up, down):  9.671E-06 0.000E+00

     total cpu time spent up to now is      281.0 secs

     End of self-consistent calculation

          k = 0.0000 0.0000 0.0000 ( 20139 PWs)   bands (ev):

   -64.4937 -38.6347 -38.4240 -38.4240 -17.6574 -16.4141  -9.1861  -6.1254
    -6.1254  -5.4450  -5.0366  -5.0366  -3.6978

          k = 0.0000 0.1444 0.0000 ( 20121 PWs)   bands (ev):

   -64.4882 -38.6239 -38.4796 -38.4367 -17.4314 -16.3169  -8.9305  -6.6085
    -6.1816  -5.8904  -5.3773  -4.6930  -3.8197

          k = 0.0000 0.2888 0.0000 ( 20049 PWs)   bands (ev):

   -64.4749 -38.6118 -38.5976 -38.4672 -16.8342 -16.0618  -8.5381  -7.3742
    -7.1568  -6.0184  -5.3076  -4.9784  -4.3616

          k = 0.0000 0.4332 0.0000 ( 19997 PWs)   bands (ev):

   -64.4615 -38.7413 -38.5713 -38.4975 -16.1279 -15.7689  -8.9929  -8.0261
    -7.5173  -6.5187  -5.3976  -4.7381  -4.5401

          k =-0.0000-0.5775-0.0000 ( 19992 PWs)   bands (ev):

   -64.4560 -38.7942 -38.5603 -38.5100 -15.7840 -15.6329  -9.3456  -8.3919
    -7.6435  -6.7001  -5.5378  -4.5284  -4.2549

          k = 0.1250 0.2166 0.0000 ( 20103 PWs)   bands (ev):

   -64.4788 -38.6053 -38.5672 -38.4645 -17.0184 -16.1393  -8.5613  -7.2023
    -6.7400  -6.2171  -5.5577  -4.5647  -4.1666

          k = 0.1250 0.3610 0.0000 ( 20063 PWs)   bands (ev):

   -64.4655 -38.6845 -38.5790 -38.5084 -16.3546 -15.8552  -8.6158  -7.6681
    -7.3885  -6.7530  -5.5042  -4.9359  -4.4082

          k = 0.1250 0.5054 0.0000 ( 19985 PWs)   bands (ev):

   -64.4560 -38.7655 -38.5603 -38.5398 -15.7986 -15.6227  -9.0497  -8.4361
    -7.5127  -6.7594  -5.5043  -5.4335  -4.0773

          k = 0.2501 0.4332 0.0000 ( 20021 PWs)   bands (ev):

   -64.4560 -38.7260 -38.5806 -38.5604 -15.8130 -15.6125  -8.6736  -8.4746
    -7.1909  -6.8418  -6.4899  -5.2870  -4.1067

          k = 0.2501 0.5775 0.0000 ( 19950 PWs)   bands (ev):

   -64.4521 -38.7303 -38.6234 -38.5526 -15.5653 -15.4975  -8.8629  -8.5266
    -7.4681  -6.8087  -6.6058  -5.6849  -3.7410

     highest occupied level (ev):    -3.6978

!    total energy              =    -185.53729005 Ry
     estimated scf accuracy    <          1.4E-09 Ry

     The total energy is the sum of the following terms:
     one-electron contribution =   -3059.88345304 Ry
     hartree contribution      =    1527.37211428 Ry
     xc contribution           =     -32.53744566 Ry
     ewald contribution        =    1379.51149437 Ry

     convergence has been achieved in   7 iterations

     negative rho (up, down):  9.671E-06 0.000E+00

     Forces acting on atoms (cartesian axes, Ry/au):

     atom    1 type  1   force =     0.00000000    0.00000000    0.00000000
     atom    2 type  2   force =    -0.00000000    0.00000000   -0.01210578
     atom    3 type  2   force =     0.00000000    0.00000000    0.01210578

     Total force =     0.017120     Total SCF correction =     0.000054


     Computing stress (Cartesian axis) and pressure


     negative rho (up, down):  9.671E-06 0.000E+00
          total   stress  (Ry/bohr**3)                   (kbar)     P=       -1.93
  -0.00000539   0.00000000  -0.00000000           -0.79        0.00       -0.00
   0.00000000  -0.00000539  -0.00000000            0.00       -0.79       -0.00
   0.00000000   0.00000000  -0.00002860            0.00        0.00       -4.21

     Energy error            =      8.6E-04 Ry
     Gradient error          =      1.2E-02 Ry/Bohr
     Cell gradient error     =      4.2E+00 kbar

     number of scf cycles    =   2
     number of bfgs steps    =   1

     enthalpy           old  =    -185.5364283857 Ry
     enthalpy           new  =    -185.5372900507 Ry

     CASE: enthalpy          _new < enthalpy          _old

     new trust radius        =       0.0276075805 bohr
     new conv_thr            =       0.0000000009 Ry

     new unit-cell volume =   2541.80853 a.u.^3 (   376.65716 Ang^3 )
     density =      0.70569 g/cm^3

CELL_PARAMETERS (angstrom)
   3.177955450   0.000000000   0.000000000
  -1.588977725   2.752190152   0.000000000
  -0.000000000  -0.000000000  43.064557692

ATOMIC_POSITIONS (angstrom)
Mo              -0.0000000000       -0.0000000000       21.5322788459
S                1.5889777249        0.9173967172       23.0967804582
S                1.5889777249        0.9173967172       19.9677772336



     Writing config-only to output data dir /tmp/MoS2_single.save/ :
     XML data file
     NEW-OLD atomic charge density approx. for the potential
     New effective cutoffs (rho, wfc):  482.38   60.34

     negative rho (up, down):  1.021E-05 0.000E+00

     total cpu time spent up to now is      303.1 secs

     Self-consistent Calculation

     iteration #  1     ecut=    60.00 Ry     beta= 0.70
     Davidson diagonalization with overlap
     ethr =  1.00E-06,  avg # of iterations =  8.1

     negative rho (up, down):  9.031E-06 0.000E+00

     total cpu time spent up to now is      319.5 secs

     total energy              =    -185.53765322 Ry
     estimated scf accuracy    <       0.00006422 Ry

     iteration #  2     ecut=    60.00 Ry     beta= 0.70
     Davidson diagonalization with overlap
     ethr =  2.47E-07,  avg # of iterations =  5.8

     negative rho (up, down):  1.097E-05 0.000E+00

     total cpu time spent up to now is      331.7 secs

     total energy              =    -185.53763142 Ry
     estimated scf accuracy    <       0.00023511 Ry

     iteration #  3     ecut=    60.00 Ry     beta= 0.70
     Davidson diagonalization with overlap
     ethr =  2.47E-07,  avg # of iterations =  5.7

     negative rho (up, down):  1.020E-05 0.000E+00

     total cpu time spent up to now is      342.7 secs

     total energy              =    -185.53767784 Ry
     estimated scf accuracy    <       0.00000797 Ry

     iteration #  4     ecut=    60.00 Ry     beta= 0.70
     Davidson diagonalization with overlap
     ethr =  3.07E-08,  avg # of iterations =  4.2

     negative rho (up, down):  1.020E-05 0.000E+00

     total cpu time spent up to now is      352.7 secs

     total energy              =    -185.53767851 Ry
     estimated scf accuracy    <       0.00000397 Ry

     iteration #  5     ecut=    60.00 Ry     beta= 0.70
     Davidson diagonalization with overlap
     ethr =  1.53E-08,  avg # of iterations =  3.2

     negative rho (up, down):  1.021E-05 0.000E+00

     total cpu time spent up to now is      361.4 secs

     total energy              =    -185.53767836 Ry
     estimated scf accuracy    <       0.00000118 Ry

     iteration #  6     ecut=    60.00 Ry     beta= 0.70
     Davidson diagonalization with overlap
     ethr =  4.53E-09,  avg # of iterations =  5.1

     negative rho (up, down):  1.022E-05 0.000E+00

     total cpu time spent up to now is      372.2 secs

     total energy              =    -185.53767882 Ry
     estimated scf accuracy    <       0.00000052 Ry

     iteration #  7     ecut=    60.00 Ry     beta= 0.70
     Davidson diagonalization with overlap
     ethr =  1.98E-09,  avg # of iterations =  2.1

     negative rho (up, down):  1.022E-05 0.000E+00

     total cpu time spent up to now is      380.9 secs

     total energy              =    -185.53767877 Ry
     estimated scf accuracy    <       0.00000017 Ry

     iteration #  8     ecut=    60.00 Ry     beta= 0.70
     Davidson diagonalization with overlap
     ethr =  6.42E-10,  avg # of iterations =  5.6

     negative rho (up, down):  1.022E-05 0.000E+00

     total cpu time spent up to now is      392.0 secs

     total energy              =    -185.53767885 Ry
     estimated scf accuracy    <       0.00000022 Ry

     iteration #  9     ecut=    60.00 Ry     beta= 0.70
     Davidson diagonalization with overlap
     ethr =  6.42E-10,  avg # of iterations =  2.0

     negative rho (up, down):  1.022E-05 0.000E+00

     total cpu time spent up to now is      400.0 secs

     total energy              =    -185.53767884 Ry
     estimated scf accuracy    <       0.00000008 Ry

     iteration # 10     ecut=    60.00 Ry     beta= 0.70
     Davidson diagonalization with overlap
     ethr =  3.09E-10,  avg # of iterations =  3.6

     negative rho (up, down):  1.022E-05 0.000E+00

     total cpu time spent up to now is      409.7 secs

     total energy              =    -185.53767886 Ry
     estimated scf accuracy    <          3.3E-09 Ry

     iteration # 11     ecut=    60.00 Ry     beta= 0.70
     Davidson diagonalization with overlap
     ethr =  1.28E-11,  avg # of iterations =  5.7

     negative rho (up, down):  1.022E-05 0.000E+00

     total cpu time spent up to now is      421.0 secs

     total energy              =    -185.53767886 Ry
     estimated scf accuracy    <          7.1E-09 Ry

     iteration # 12     ecut=    60.00 Ry     beta= 0.70
     Davidson diagonalization with overlap
     ethr =  1.28E-11,  avg # of iterations =  3.3

     negative rho (up, down):  1.022E-05 0.000E+00

     total cpu time spent up to now is      429.9 secs

     total energy              =    -185.53767886 Ry
     estimated scf accuracy    <       0.00000002 Ry

     iteration # 13     ecut=    60.00 Ry     beta= 0.70
     Davidson diagonalization with overlap
     ethr =  1.28E-11,  avg # of iterations =  3.1

     negative rho (up, down):  1.022E-05 0.000E+00

     total cpu time spent up to now is      439.5 secs

     total energy              =    -185.53767886 Ry
     estimated scf accuracy    <          5.9E-09 Ry

     iteration # 14     ecut=    60.00 Ry     beta= 0.70
     Davidson diagonalization with overlap
     ethr =  1.28E-11,  avg # of iterations =  2.5

     negative rho (up, down):  1.022E-05 0.000E+00

     total cpu time spent up to now is      447.7 secs

     total energy              =    -185.53767886 Ry
     estimated scf accuracy    <          2.5E-09 Ry

     iteration # 15     ecut=    60.00 Ry     beta= 0.70
     Davidson diagonalization with overlap
     ethr =  9.58E-12,  avg # of iterations =  2.7

     negative rho (up, down):  1.022E-05 0.000E+00

     total cpu time spent up to now is      456.4 secs

     total energy              =    -185.53767886 Ry
     estimated scf accuracy    <          9.0E-10 Ry

     iteration # 16     ecut=    60.00 Ry     beta= 0.70
     Davidson diagonalization with overlap
     ethr =  3.46E-12,  avg # of iterations =  3.8

     negative rho (up, down):  1.022E-05 0.000E+00

     total cpu time spent up to now is      466.4 secs

     End of self-consistent calculation

          k = 0.0000 0.0000 0.0000 ( 20139 PWs)   bands (ev):

   -64.4878 -38.6357 -38.4277 -38.4277 -17.7212 -16.4192  -9.2425  -6.2290
    -6.2290  -5.4092  -5.1157  -5.1157  -3.6459

          k =-0.0000 0.1444 0.0000 ( 20121 PWs)   bands (ev):

   -64.4822 -38.6247 -38.4841 -38.4405 -17.4937 -16.3257  -8.9899  -6.7039
    -6.2113  -5.9912  -5.4570  -4.6964  -3.7802

          k =-0.0000 0.2889 0.0000 ( 20049 PWs)   bands (ev):

   -64.4688 -38.6184 -38.5978 -38.4714 -16.8937 -16.0807  -8.6171  -7.4313
    -7.1971  -6.0997  -5.3975  -4.9527  -4.3534

          k =-0.0000 0.4333 0.0000 ( 19997 PWs)   bands (ev):

   -64.4552 -38.7499 -38.5709 -38.5021 -16.1869 -15.8005  -9.0632  -8.0566
    -7.5582  -6.6014  -5.3659  -4.8068  -4.5498

          k = 0.0000-0.5777-0.0000 ( 19992 PWs)   bands (ev):

   -64.4496 -38.8036 -38.5596 -38.5148 -15.8442 -15.6709  -9.3980  -8.4150
    -7.6944  -6.7833  -5.5060  -4.5835  -4.2597

          k = 0.1251 0.2166 0.0000 ( 20103 PWs)   bands (ev):

   -64.4727 -38.6057 -38.5732 -38.4687 -17.0786 -16.1549  -8.6320  -7.2758
    -6.7796  -6.2852  -5.6475  -4.5543  -4.1521

          k = 0.1251 0.3611 0.0000 ( 20063 PWs)   bands (ev):

   -64.4592 -38.6923 -38.5788 -38.5132 -16.4132 -15.8824  -8.6984  -7.7207
    -7.4264  -6.8007  -5.5570  -4.9158  -4.4379

          k = 0.1251 0.5055 0.0000 ( 19985 PWs)   bands (ev):

   -64.4496 -38.7746 -38.5597 -38.5451 -15.8582 -15.6598  -9.1059  -8.4833
    -7.5605  -6.8078  -5.5403  -5.4068  -4.1090

          k = 0.2502 0.4333 0.0000 ( 20021 PWs)   bands (ev):

   -64.4496 -38.7345 -38.5865 -38.5597 -15.8720 -15.6486  -8.7377  -8.5445
    -7.2267  -6.8590  -6.5321  -5.2634  -4.1428

          k = 0.2502 0.5777 0.0000 ( 19950 PWs)   bands (ev):

   -64.4457 -38.7390 -38.6297 -38.5518 -15.6252 -15.5376  -8.9347  -8.5717
    -7.5195  -6.8447  -6.6172  -5.6593  -3.7692

     highest occupied level (ev):    -3.6459

!    total energy              =    -185.53767886 Ry
     estimated scf accuracy    <          9.2E-11 Ry

     The total energy is the sum of the following terms:
     one-electron contribution =   -3060.99803809 Ry
     hartree contribution      =    1527.92027131 Ry
     xc contribution           =     -32.56497749 Ry
     ewald contribution        =    1380.10506541 Ry

     convergence has been achieved in  16 iterations

     negative rho (up, down):  1.022E-05 0.000E+00

     Forces acting on atoms (cartesian axes, Ry/au):

     atom    1 type  1   force =     0.00000000   -0.00000000   -0.00000000
     atom    2 type  2   force =    -0.00000000   -0.00000000    0.00026949
     atom    3 type  2   force =     0.00000000   -0.00000000   -0.00026949

     Total force =     0.000381     Total SCF correction =     0.000022


     Computing stress (Cartesian axis) and pressure


     negative rho (up, down):  1.022E-05 0.000E+00
          total   stress  (Ry/bohr**3)                   (kbar)     P=        0.51
   0.00000503  -0.00000000  -0.00000000            0.74       -0.00       -0.00
   0.00000000   0.00000503   0.00000000            0.00        0.74        0.00
   0.00000000   0.00000000   0.00000038            0.00        0.00        0.06

     Energy error            =      3.9E-04 Ry
     Gradient error          =      2.7E-04 Ry/Bohr
     Cell gradient error     =      7.4E-01 kbar

     number of scf cycles    =   3
     number of bfgs steps    =   2

     enthalpy           old  =    -185.5372900507 Ry
     enthalpy           new  =    -185.5376788601 Ry

     CASE: enthalpy          _new < enthalpy          _old

     new trust radius        =       0.0012645885 bohr
     new conv_thr            =            1.0E-10 Ry

     new unit-cell volume =   2542.52398 a.u.^3 (   376.76318 Ang^3 )
     density =      0.70549 g/cm^3

CELL_PARAMETERS (angstrom)
   3.178354011   0.000000000   0.000000000
  -1.589177006   2.752535316   0.000000000
  -0.000000000  -0.000000000  43.065876370

ATOMIC_POSITIONS (angstrom)
Mo              -0.0000000000       -0.0000000000       21.5329381850
S                1.5891770057        0.9175117720       23.0978163986
S                1.5891770057        0.9175117720       19.9680599714



     Writing config-only to output data dir /tmp/MoS2_single.save/ :
     XML data file
     NEW-OLD atomic charge density approx. for the potential
     New effective cutoffs (rho, wfc):  482.33   60.34

     negative rho (up, down):  1.042E-05 0.000E+00

     total cpu time spent up to now is      486.2 secs

     Self-consistent Calculation

     iteration #  1     ecut=    60.00 Ry     beta= 0.70
     Davidson diagonalization with overlap
     ethr =  1.00E-06,  avg # of iterations =  2.0

     Threshold (ethr) on eigenvalues was too large:
     Diagonalizing with lowered threshold

     Davidson diagonalization with overlap
     ethr =  4.70E-10,  avg # of iterations =  6.7

     negative rho (up, down):  1.026E-05 0.000E+00

     total cpu time spent up to now is      505.8 secs

     total energy              =    -185.53768192 Ry
     estimated scf accuracy    <       0.00000011 Ry

     iteration #  2     ecut=    60.00 Ry     beta= 0.70
     Davidson diagonalization with overlap
     ethr =  4.10E-10,  avg # of iterations =  5.8

     negative rho (up, down):  1.021E-05 0.000E+00

     total cpu time spent up to now is      517.4 secs

     total energy              =    -185.53768186 Ry
     estimated scf accuracy    <       0.00000080 Ry

     iteration #  3     ecut=    60.00 Ry     beta= 0.70
     Davidson diagonalization with overlap
     ethr =  4.10E-10,  avg # of iterations =  6.0

     negative rho (up, down):  1.019E-05 0.000E+00

     total cpu time spent up to now is      528.7 secs

     total energy              =    -185.53768197 Ry
     estimated scf accuracy    <          7.6E-10 Ry

     iteration #  4     ecut=    60.00 Ry     beta= 0.70
     Davidson diagonalization with overlap
     ethr =  2.93E-12,  avg # of iterations =  8.6

     negative rho (up, down):  1.019E-05 0.000E+00

     total cpu time spent up to now is      543.4 secs

     total energy              =    -185.53768197 Ry
     estimated scf accuracy    <       0.00000001 Ry

     iteration #  5     ecut=    60.00 Ry     beta= 0.70
     Davidson diagonalization with overlap
     ethr =  2.93E-12,  avg # of iterations =  4.3

     negative rho (up, down):  1.019E-05 0.000E+00

     total cpu time spent up to now is      553.3 secs

     total energy              =    -185.53768197 Ry
     estimated scf accuracy    <          3.1E-09 Ry

     iteration #  6     ecut=    60.00 Ry     beta= 0.70
     Davidson diagonalization with overlap
     ethr =  2.93E-12,  avg # of iterations =  6.3

     negative rho (up, down):  1.019E-05 0.000E+00

     total cpu time spent up to now is      564.4 secs

     total energy              =    -185.53768197 Ry
     estimated scf accuracy    <          3.7E-10 Ry

     iteration #  7     ecut=    60.00 Ry     beta= 0.70
     Davidson diagonalization with overlap
     ethr =  1.44E-12,  avg # of iterations =  2.5

     negative rho (up, down):  1.019E-05 0.000E+00

     total cpu time spent up to now is      572.9 secs

     End of self-consistent calculation

          k = 0.0000 0.0000 0.0000 ( 20139 PWs)   bands (ev):

   -64.4891 -38.6366 -38.4289 -38.4289 -17.7191 -16.4187  -9.2406  -6.2274
    -6.2274  -5.4097  -5.1150  -5.1150  -3.6470

          k =-0.0000 0.1444 0.0000 ( 20121 PWs)   bands (ev):

   -64.4836 -38.6256 -38.4853 -38.4418 -17.4918 -16.3252  -8.9881  -6.7023
    -6.2107  -5.9898  -5.4562  -4.6970  -3.7811

          k =-0.0000 0.2888 0.0000 ( 20049 PWs)   bands (ev):

   -64.4701 -38.6193 -38.5988 -38.4726 -16.8922 -16.0801  -8.6150  -7.4305
    -7.1960  -6.0986  -5.3967  -4.9536  -4.3538

          k =-0.0000 0.4332 0.0000 ( 19997 PWs)   bands (ev):

   -64.4566 -38.7506 -38.5719 -38.5033 -16.1859 -15.7998  -9.0611  -8.0554
    -7.5574  -6.6001  -5.3667  -4.8067  -4.5499

          k = 0.0000-0.5776-0.0000 ( 19992 PWs)   bands (ev):

   -64.4511 -38.8042 -38.5607 -38.5159 -15.8434 -15.6701  -9.3961  -8.4139
    -7.6931  -6.7819  -5.5067  -4.5837  -4.2601

          k = 0.1251 0.2166 0.0000 ( 20103 PWs)   bands (ev):

   -64.4741 -38.6066 -38.5742 -38.4699 -17.0770 -16.1544  -8.6301  -7.2746
    -6.7786  -6.2841  -5.6465  -4.5552  -4.1527

          k = 0.1251 0.3610 0.0000 ( 20063 PWs)   bands (ev):

   -64.4606 -38.6931 -38.5798 -38.5143 -16.4120 -15.8817  -8.6962  -7.7193
    -7.4260  -6.7997  -5.5565  -4.9167  -4.4379

          k = 0.1251 0.5054 0.0000 ( 19985 PWs)   bands (ev):

   -64.4511 -38.7753 -38.5607 -38.5462 -15.8574 -15.6590  -9.1041  -8.4817
    -7.5595  -6.8069  -5.5402  -5.4075  -4.1091

          k = 0.2501 0.4332 0.0000 ( 20021 PWs)   bands (ev):

   -64.4511 -38.7353 -38.5874 -38.5607 -15.8712 -15.6479  -8.7358  -8.5424
    -7.2264  -6.8585  -6.5313  -5.2643  -4.1427

          k = 0.2501 0.5776 0.0000 ( 19950 PWs)   bands (ev):

   -64.4471 -38.7398 -38.6306 -38.5528 -15.6246 -15.5369  -8.9324  -8.5703
    -7.5183  -6.8442  -6.6170  -5.6600  -3.7694

     highest occupied level (ev):    -3.6470

!    total energy              =    -185.53768197 Ry
     estimated scf accuracy    <          6.5E-11 Ry

     The total energy is the sum of the following terms:
     one-electron contribution =   -3060.25012454 Ry
     hartree contribution      =    1527.54590804 Ry
     xc contribution           =     -32.56381963 Ry
     ewald contribution        =    1379.73035416 Ry

     convergence has been achieved in   7 iterations

     negative rho (up, down):  1.019E-05 0.000E+00

     Forces acting on atoms (cartesian axes, Ry/au):

     atom    1 type  1   force =     0.00000000   -0.00000000   -0.00000000
     atom    2 type  2   force =     0.00000000   -0.00000000   -0.00010353
     atom    3 type  2   force =    -0.00000000   -0.00000000    0.00010353

     Total force =     0.000146     Total SCF correction =     0.000019
     SCF correction compared to forces is large: reduce conv_thr to get better values


     Computing stress (Cartesian axis) and pressure


     negative rho (up, down):  1.019E-05 0.000E+00
          total   stress  (Ry/bohr**3)                   (kbar)     P=        0.41
   0.00000442  -0.00000000   0.00000000            0.65       -0.00        0.00
   0.00000000   0.00000442   0.00000000            0.00        0.65        0.00
   0.00000000  -0.00000000  -0.00000046            0.00       -0.00       -0.07

     Energy error            =      3.1E-06 Ry
     Gradient error          =      1.0E-04 Ry/Bohr
     Cell gradient error     =      6.5E-01 kbar

     number of scf cycles    =   4
     number of bfgs steps    =   3

     enthalpy           old  =    -185.5376788601 Ry
     enthalpy           new  =    -185.5376819744 Ry

     CASE: enthalpy          _new < enthalpy          _old

     new trust radius        =       0.0013910686 bohr
     new conv_thr            =            1.0E-10 Ry

     new unit-cell volume =   2543.22583 a.u.^3 (   376.86719 Ang^3 )
     density =      0.70529 g/cm^3

CELL_PARAMETERS (angstrom)
   3.178792429   0.000000000   0.000000000
  -1.589396215   2.752914997   0.000000000
  -0.000000000  -0.000000000  43.065882626

ATOMIC_POSITIONS (angstrom)
Mo              -0.0000000000       -0.0000000000       21.5329413130
S                1.5893962147        0.9176383324       23.0978819452
S                1.5893962147        0.9176383324       19.9680006807



     Writing config-only to output data dir /tmp/MoS2_single.save/ :
     XML data file
     NEW-OLD atomic charge density approx. for the potential
     New effective cutoffs (rho, wfc):  482.31   60.34

     negative rho (up, down):  1.035E-05 0.000E+00

     total cpu time spent up to now is      592.8 secs

     Self-consistent Calculation

     iteration #  1     ecut=    60.00 Ry     beta= 0.70
     Davidson diagonalization with overlap
     ethr =  1.00E-06,  avg # of iterations =  2.0

     Threshold (ethr) on eigenvalues was too large:
     Diagonalizing with lowered threshold

     Davidson diagonalization with overlap
     ethr =  1.20E-10,  avg # of iterations =  6.6

     negative rho (up, down):  1.022E-05 0.000E+00

     total cpu time spent up to now is      612.1 secs

     total energy              =    -185.53768479 Ry
     estimated scf accuracy    <       0.00000011 Ry

     iteration #  2     ecut=    60.00 Ry     beta= 0.70
     Davidson diagonalization with overlap
     ethr =  4.28E-10,  avg # of iterations =  6.3

     negative rho (up, down):  1.018E-05 0.000E+00

     total cpu time spent up to now is      623.4 secs

     total energy              =    -185.53768472 Ry
     estimated scf accuracy    <       0.00000115 Ry

     iteration #  3     ecut=    60.00 Ry     beta= 0.70
     Davidson diagonalization with overlap
     ethr =  4.28E-10,  avg # of iterations =  6.2

     negative rho (up, down):  1.016E-05 0.000E+00

     total cpu time spent up to now is      634.2 secs

     total energy              =    -185.53768486 Ry
     estimated scf accuracy    <          4.4E-09 Ry

     iteration #  4     ecut=    60.00 Ry     beta= 0.70
     Davidson diagonalization with overlap
     ethr =  1.70E-11,  avg # of iterations =  5.5

     negative rho (up, down):  1.016E-05 0.000E+00

     total cpu time spent up to now is      645.2 secs

     total energy              =    -185.53768486 Ry
     estimated scf accuracy    <          4.9E-09 Ry

     iteration #  5     ecut=    60.00 Ry     beta= 0.70
     Davidson diagonalization with overlap
     ethr =  1.70E-11,  avg # of iterations =  2.1

     negative rho (up, down):  1.016E-05 0.000E+00

     total cpu time spent up to now is      653.7 secs

     total energy              =    -185.53768486 Ry
     estimated scf accuracy    <          6.5E-10 Ry

     iteration #  6     ecut=    60.00 Ry     beta= 0.70
     Davidson diagonalization with overlap
     ethr =  2.51E-12,  avg # of iterations =  5.8

     negative rho (up, down):  1.016E-05 0.000E+00

     total cpu time spent up to now is      665.1 secs

     total energy              =    -185.53768486 Ry
     estimated scf accuracy    <          2.3E-09 Ry

     iteration #  7     ecut=    60.00 Ry     beta= 0.70
     Davidson diagonalization with overlap
     ethr =  2.51E-12,  avg # of iterations =  2.2

     negative rho (up, down):  1.016E-05 0.000E+00

     total cpu time spent up to now is      673.8 secs

     total energy              =    -185.53768486 Ry
     estimated scf accuracy    <          1.0E-09 Ry

     iteration #  8     ecut=    60.00 Ry     beta= 0.70
     Davidson diagonalization with overlap
     ethr =  2.51E-12,  avg # of iterations =  3.9

     negative rho (up, down):  1.016E-05 0.000E+00

     total cpu time spent up to now is      683.1 secs

     End of self-consistent calculation

          k = 0.0000 0.0000 0.0000 ( 20139 PWs)   bands (ev):

   -64.4906 -38.6377 -38.4304 -38.4304 -17.7182 -16.4183  -9.2398  -6.2279
    -6.2279  -5.4096  -5.1160  -5.1160  -3.6470

          k =-0.0000 0.1444 0.0000 ( 20121 PWs)   bands (ev):

   -64.4850 -38.6266 -38.4867 -38.4432 -17.4910 -16.3248  -8.9873  -6.7027
    -6.2106  -5.9904  -5.4570  -4.6977  -3.7813

          k =-0.0000 0.2888 0.0000 ( 20049 PWs)   bands (ev):

   -64.4716 -38.6206 -38.5999 -38.4741 -16.8918 -16.0798  -8.6143  -7.4307
    -7.1955  -6.0991  -5.3977  -4.9541  -4.3540

          k =-0.0000 0.4332 0.0000 ( 19997 PWs)   bands (ev):

   -64.4581 -38.7516 -38.5730 -38.5047 -16.1860 -15.7997  -9.0603  -8.0547
    -7.5574  -6.6003  -5.3669  -4.8080  -4.5502

          k = 0.0000-0.5776-0.0000 ( 19992 PWs)   bands (ev):

   -64.4525 -38.8052 -38.5618 -38.5173 -15.8438 -15.6701  -9.3952  -8.4130
    -7.6927  -6.7820  -5.5068  -4.5851  -4.2606

          k = 0.1250 0.2166 0.0000 ( 20103 PWs)   bands (ev):

   -64.4755 -38.6077 -38.5755 -38.4713 -17.0764 -16.1541  -8.6295  -7.2749
    -6.7783  -6.2844  -5.6474  -4.5561  -4.1530

          k = 0.1250 0.3610 0.0000 ( 20063 PWs)   bands (ev):

   -64.4621 -38.6942 -38.5809 -38.5157 -16.4120 -15.8816  -8.6955  -7.7188
    -7.4263  -6.7996  -5.5571  -4.9174  -4.4385

          k = 0.1250 0.5054 0.0000 ( 19985 PWs)   bands (ev):

   -64.4525 -38.7762 -38.5619 -38.5475 -15.8578 -15.6590  -9.1032  -8.4808
    -7.5593  -6.8069  -5.5409  -5.4078  -4.1100

          k = 0.2501 0.4332 0.0000 ( 20021 PWs)   bands (ev):

   -64.4525 -38.7363 -38.5887 -38.5619 -15.8716 -15.6479  -8.7350  -8.5416
    -7.2268  -6.8582  -6.5314  -5.2647  -4.1434

          k = 0.2501 0.5776 0.0000 ( 19950 PWs)   bands (ev):

   -64.4486 -38.7408 -38.6318 -38.5540 -15.6252 -15.5370  -8.9313  -8.5696
    -7.5181  -6.8445  -6.6169  -5.6603  -3.7703

     highest occupied level (ev):    -3.6470

!    total energy              =    -185.53768486 Ry
     estimated scf accuracy    <          2.4E-11 Ry

     The total energy is the sum of the following terms:
     one-electron contribution =   -3059.41264169 Ry
     hartree contribution      =    1527.12622430 Ry
     xc contribution           =     -32.56307567 Ry
     ewald contribution        =    1379.31180819 Ry

     convergence has been achieved in   8 iterations

     negative rho (up, down):  1.016E-05 0.000E+00

     Forces acting on atoms (cartesian axes, Ry/au):

     atom    1 type  1   force =     0.00000000   -0.00000000   -0.00000000
     atom    2 type  2   force =     0.00000000    0.00000000   -0.00025331
     atom    3 type  2   force =    -0.00000000    0.00000000    0.00025331

     Total force =     0.000358     Total SCF correction =     0.000012


     Computing stress (Cartesian axis) and pressure


     negative rho (up, down):  1.016E-05 0.000E+00
          total   stress  (Ry/bohr**3)                   (kbar)     P=        0.35
   0.00000394  -0.00000000   0.00000000            0.58       -0.00        0.00
  -0.00000000   0.00000394   0.00000000           -0.00        0.58        0.00
   0.00000000   0.00000000  -0.00000081            0.00        0.00       -0.12

     Energy error            =      2.9E-06 Ry
     Gradient error          =      2.5E-04 Ry/Bohr
     Cell gradient error     =      5.8E-01 kbar

     number of scf cycles    =   5
     number of bfgs steps    =   4

     enthalpy           old  =    -185.5376819744 Ry
     enthalpy           new  =    -185.5376848623 Ry

     CASE: enthalpy          _new < enthalpy          _old

     new trust radius        =       0.0020866030 bohr
     new conv_thr            =            1.0E-10 Ry

     new unit-cell volume =   2544.23137 a.u.^3 (   377.01619 Ang^3 )
     density =      0.70502 g/cm^3

CELL_PARAMETERS (angstrom)
   3.179450056   0.000000000   0.000000000
  -1.589725028   2.753484519   0.000000000
  -0.000000000  -0.000000000  43.065089676

ATOMIC_POSITIONS (angstrom)
Mo              -0.0000000000       -0.0000000000       21.5325448382
S                1.5897250281        0.9178281729       23.0973928530
S                1.5897250281        0.9178281729       19.9676968234



     Writing config-only to output data dir /tmp/MoS2_single.save/ :
     XML data file
     NEW-OLD atomic charge density approx. for the potential
     New effective cutoffs (rho, wfc):  482.30   60.34

     negative rho (up, down):  1.038E-05 0.000E+00

     total cpu time spent up to now is      702.7 secs

     Self-consistent Calculation

     iteration #  1     ecut=    60.00 Ry     beta= 0.70
     Davidson diagonalization with overlap
     ethr =  1.00E-06,  avg # of iterations =  2.0

     Threshold (ethr) on eigenvalues was too large:
     Diagonalizing with lowered threshold

     Davidson diagonalization with overlap
     ethr =  5.42E-10,  avg # of iterations =  5.6

     negative rho (up, down):  1.020E-05 0.000E+00

     total cpu time spent up to now is      722.0 secs

     total energy              =    -185.53768869 Ry
     estimated scf accuracy    <       0.00000015 Ry

     iteration #  2     ecut=    60.00 Ry     beta= 0.70
     Davidson diagonalization with overlap
     ethr =  5.59E-10,  avg # of iterations =  6.0

     negative rho (up, down):  1.015E-05 0.000E+00

     total cpu time spent up to now is      734.5 secs

     total energy              =    -185.53768862 Ry
     estimated scf accuracy    <       0.00000141 Ry

     iteration #  3     ecut=    60.00 Ry     beta= 0.70
     Davidson diagonalization with overlap
     ethr =  5.59E-10,  avg # of iterations =  6.3

     negative rho (up, down):  1.013E-05 0.000E+00

     total cpu time spent up to now is      746.1 secs

     total energy              =    -185.53768879 Ry
     estimated scf accuracy    <          5.4E-09 Ry

     iteration #  4     ecut=    60.00 Ry     beta= 0.70
     Davidson diagonalization with overlap
     ethr =  2.09E-11,  avg # of iterations =  5.5

     negative rho (up, down):  1.013E-05 0.000E+00

     total cpu time spent up to now is      757.6 secs

     total energy              =    -185.53768879 Ry
     estimated scf accuracy    <          4.5E-09 Ry

     iteration #  5     ecut=    60.00 Ry     beta= 0.70
     Davidson diagonalization with overlap
     ethr =  1.72E-11,  avg # of iterations =  2.2

     negative rho (up, down):  1.013E-05 0.000E+00

     total cpu time spent up to now is      766.8 secs

     total energy              =    -185.53768879 Ry
     estimated scf accuracy    <          5.1E-10 Ry

     iteration #  6     ecut=    60.00 Ry     beta= 0.70
     Davidson diagonalization with overlap
     ethr =  1.95E-12,  avg # of iterations =  5.8

     negative rho (up, down):  1.013E-05 0.000E+00

     total cpu time spent up to now is      778.1 secs

     total energy              =    -185.53768879 Ry
     estimated scf accuracy    <          2.1E-09 Ry

     iteration #  7     ecut=    60.00 Ry     beta= 0.70
     Davidson diagonalization with overlap
     ethr =  1.95E-12,  avg # of iterations =  3.1

     negative rho (up, down):  1.013E-05 0.000E+00

     total cpu time spent up to now is      787.3 secs

     total energy              =    -185.53768879 Ry
     estimated scf accuracy    <          5.3E-10 Ry

     iteration #  8     ecut=    60.00 Ry     beta= 0.70
     Davidson diagonalization with overlap
     ethr =  1.95E-12,  avg # of iterations =  4.7

     negative rho (up, down):  1.013E-05 0.000E+00

     total cpu time spent up to now is      797.7 secs

     total energy              =    -185.53768879 Ry
     estimated scf accuracy    <          1.1E-10 Ry

     iteration #  9     ecut=    60.00 Ry     beta= 0.70
     Davidson diagonalization with overlap
     ethr =  4.16E-13,  avg # of iterations =  2.1

     negative rho (up, down):  1.013E-05 0.000E+00

     total cpu time spent up to now is      806.5 secs

     End of self-consistent calculation

          k = 0.0000 0.0000 0.0000 ( 20139 PWs)   bands (ev):

   -64.4927 -38.6392 -38.4328 -38.4328 -17.7174 -16.4176  -9.2391  -6.2298
    -6.2298  -5.4090  -5.1183  -5.1183  -3.6466

          k =-0.0000 0.1444 0.0000 ( 20121 PWs)   bands (ev):

   -64.4871 -38.6282 -38.4889 -38.4456 -17.4904 -16.3243  -8.9869  -6.7042
    -6.2108  -5.9925  -5.4590  -4.6988  -3.7813

          k =-0.0000 0.2887 0.0000 ( 20049 PWs)   bands (ev):

   -64.4737 -38.6225 -38.6016 -38.4763 -16.8918 -16.0796  -8.6141  -7.4318
    -7.1953  -6.1007  -5.4003  -4.9545  -4.3543

          k =-0.0000 0.4331 0.0000 ( 19997 PWs)   bands (ev):

   -64.4603 -38.7533 -38.5747 -38.5068 -16.1868 -15.7999  -9.0598  -8.0539
    -7.5579  -6.6016  -5.3668  -4.8108  -4.5507

          k = 0.0000-0.5775-0.0000 ( 19992 PWs)   bands (ev):

   -64.4547 -38.8067 -38.5636 -38.5194 -15.8451 -15.6704  -9.3943  -8.4120
    -7.6928  -6.7832  -5.5066  -4.5879  -4.2615

          k = 0.1250 0.2165 0.0000 ( 20103 PWs)   bands (ev):

   -64.4777 -38.6094 -38.5775 -38.4736 -17.0763 -16.1538  -8.6293  -7.2761
    -6.7783  -6.2856  -5.6497  -4.5572  -4.1534

          k = 0.1250 0.3609 0.0000 ( 20063 PWs)   bands (ev):

   -64.4642 -38.6960 -38.5826 -38.5178 -16.4125 -15.8816  -8.6953  -7.7186
    -7.4272  -6.7999  -5.5586  -4.9181  -4.4397

          k = 0.1250 0.5053 0.0000 ( 19985 PWs)   bands (ev):

   -64.4547 -38.7778 -38.5636 -38.5496 -15.8591 -15.6594  -9.1025  -8.4801
    -7.5596  -6.8073  -5.5424  -5.4079  -4.1116

          k = 0.2500 0.4331 0.0000 ( 20021 PWs)   bands (ev):

   -64.4547 -38.7380 -38.5907 -38.5637 -15.8728 -15.6483  -8.7345  -8.5410
    -7.2278  -6.8580  -6.5318  -5.2652  -4.1450

          k = 0.2500 0.5775 0.0000 ( 19950 PWs)   bands (ev):

   -64.4508 -38.7425 -38.6338 -38.5558 -15.6268 -15.5376  -8.9305  -8.5690
    -7.5184  -6.8453  -6.6170  -5.6603  -3.7719

     highest occupied level (ev):    -3.6466

!    total energy              =    -185.53768879 Ry
     estimated scf accuracy    <          4.5E-11 Ry

     The total energy is the sum of the following terms:
     one-electron contribution =   -3058.14597047 Ry
     hartree contribution      =    1526.49126351 Ry
     xc contribution           =     -32.56224142 Ry
     ewald contribution        =    1378.67925959 Ry

     convergence has been achieved in   9 iterations

     negative rho (up, down):  1.013E-05 0.000E+00

     Forces acting on atoms (cartesian axes, Ry/au):

     atom    1 type  1   force =     0.00000000   -0.00000000   -0.00000000
     atom    2 type  2   force =     0.00000000    0.00000000   -0.00034130
     atom    3 type  2   force =    -0.00000000   -0.00000000    0.00034130

     Total force =     0.000483     Total SCF correction =     0.000015


     Computing stress (Cartesian axis) and pressure


     negative rho (up, down):  1.013E-05 0.000E+00
          total   stress  (Ry/bohr**3)                   (kbar)     P=        0.27
   0.00000332  -0.00000000   0.00000000            0.49       -0.00        0.00
  -0.00000000   0.00000332  -0.00000000           -0.00        0.49       -0.00
   0.00000000  -0.00000000  -0.00000103            0.00       -0.00       -0.15

     Energy error            =      3.9E-06 Ry
     Gradient error          =      3.4E-04 Ry/Bohr
     Cell gradient error     =      4.9E-01 kbar

     bfgs converged in   6 scf cycles and   5 bfgs steps
     (criteria: energy <  1.0E-04 Ry, force <  1.0E-03 Ry/Bohr, cell <  5.0E-01 kbar)

     End of BFGS Geometry Optimization

     Final enthalpy           =    -185.5376887907 Ry

     File /tmp/MoS2_single.bfgs deleted, as requested
Begin final coordinates
     new unit-cell volume =   2544.23137 a.u.^3 (   377.01619 Ang^3 )
     density =      0.70502 g/cm^3

CELL_PARAMETERS (angstrom)
   3.179450056   0.000000000   0.000000000
  -1.589725028   2.753484519   0.000000000
  -0.000000000  -0.000000000  43.065089676

ATOMIC_POSITIONS (angstrom)
Mo              -0.0000000000       -0.0000000000       21.5325448382
S                1.5897250281        0.9178281729       23.0973928530
S                1.5897250281        0.9178281729       19.9676968234
End final coordinates



     Writing config-only to output data dir /tmp/MoS2_single.save/ :
     XML data file

     Final scf calculation at the relaxed structure.
     The G-vectors are recalculated for the final unit cell
     Results may differ from those at the preceding step.

     G-vector sticks info
     --------------------
     sticks:   dense  smooth     PW     G-vecs:    dense   smooth      PW
     Sum        1189     595    169               451695   159755   25189

     Using Slab Decomposition



     bravais-lattice index     =            0
     lattice parameter (alat)  =       6.0093  a.u.
     unit-cell volume          =    2544.2314 (a.u.)^3
     number of atoms/cell      =            3
     number of atomic types    =            2
     number of electrons       =        26.00
     number of Kohn-Sham states=           13
     kinetic-energy cutoff     =      60.0000  Ry
     charge density cutoff     =     480.0000  Ry
     scf convergence threshold =      1.0E-10
     mixing beta               =       0.7000
     number of iterations used =            8  plain     mixing
     press convergence thresh. =      5.0E-01
     Exchange-correlation= PBE
                           (   1   4   3   4   0   0   0)

     celldm(1)=   6.009329  celldm(2)=   0.000000  celldm(3)=   0.000000
     celldm(4)=   0.000000  celldm(5)=   0.000000  celldm(6)=   0.000000

     crystal axes: (cart. coord. in units of alat)
               a(1) = (   0.999827   0.000000   0.000000 )  
               a(2) = (  -0.499914   0.865876   0.000000 )  
               a(3) = (  -0.000000  -0.000000  13.542481 )  

     reciprocal axes: (cart. coord. in units 2 pi/alat)
               b(1) = (  1.000173  0.577450  0.000000 )  
               b(2) = ( -0.000000  1.154900  0.000000 )  
               b(3) = ( -0.000000 -0.000000  0.073842 )  


     PseudoPot. # 1 for Mo read from file:
     /home/gu/projects/PymatgenTest/outputs/Mo.upf
     MD5 check sum: e9ff66a0a2b2a26e33b0f56142110bb0
     Pseudo is Norm-conserving, Zval = 14.0
     Generated using ONCVPSP code by D. R. Hamann
     Using radial grid of 1526 points,  6 beta functions with: 
                l(1) =   0
                l(2) =   0
                l(3) =   1
                l(4) =   1
                l(5) =   2
                l(6) =   2

     PseudoPot. # 2 for S  read from file:
     /home/gu/projects/PymatgenTest/outputs/S.upf
     MD5 check sum: 88d86576ff6df21479756cfb9bdac1df
     Pseudo is Ultrasoft + core correction, Zval =  6.0
     Generated by new atomic code, or converted to UPF format
     Using radial grid of  907 points,  6 beta functions with: 
                l(1) =   0
                l(2) =   0
                l(3) =   1
                l(4) =   1
                l(5) =   2
                l(6) =   2
     Q(r) pseudized with  8 coefficients,  rinner =    1.300   1.300   1.300
                                                       1.300   1.300

     atomic species   valence    mass     pseudopotential
     Mo               14.00    95.95000     Mo( 1.00)
     S                 6.00    32.06000     S ( 1.00)

     12 Sym. Ops. (no inversion) found



   Cartesian axes

     site n.     atom                  positions (alat units)
         1        Mo     tau(   1) = (  -0.0000000  -0.0000000   6.7712405  )
         2        S      tau(   2) = (   0.4999135   0.2886252   7.2633311  )
         3        S      tau(   3) = (   0.4999135   0.2886252   6.2791499  )

     number of k points=    10
                       cart. coord. in units 2pi/alat
        k(    1) = (   0.0000000   0.0000000   0.0000000), wk =   0.0312500
        k(    2) = (  -0.0000000   0.1443625   0.0000000), wk =   0.1875000
        k(    3) = (  -0.0000000   0.2887251   0.0000000), wk =   0.1875000
        k(    4) = (  -0.0000000   0.4330876   0.0000000), wk =   0.1875000
        k(    5) = (   0.0000000  -0.5774501  -0.0000000), wk =   0.0937500
        k(    6) = (   0.1250216   0.2165438   0.0000000), wk =   0.1875000
        k(    7) = (   0.1250216   0.3609063   0.0000000), wk =   0.3750000
        k(    8) = (   0.1250216   0.5052689   0.0000000), wk =   0.3750000
        k(    9) = (   0.2500432   0.4330876   0.0000000), wk =   0.1875000
        k(   10) = (   0.2500432   0.5774501   0.0000000), wk =   0.1875000

     Dense  grid:   451695 G-vectors     FFT dimensions: (  45,  45, 576)

     Smooth grid:   159755 G-vectors     FFT dimensions: (  30,  30, 405)

     Estimated max dynamical RAM per process >       1.70 GB

     Initial potential from superposition of free atoms

     starting charge      25.9989, renormalised to      26.0000

     negative rho (up, down):  1.131E-05 0.000E+00
     Starting wfcs are   18 randomized atomic wfcs

     total cpu time spent up to now is      828.7 secs

     Self-consistent Calculation

     iteration #  1     ecut=    60.00 Ry     beta= 0.70
     Davidson diagonalization with overlap
     ethr =  1.00E-06,  avg # of iterations = 14.4

     negative rho (up, down):  4.171E-06 0.000E+00

     total cpu time spent up to now is      850.9 secs

     total energy              =    -185.48914624 Ry
     estimated scf accuracy    <       0.12183597 Ry

     iteration #  2     ecut=    60.00 Ry     beta= 0.70
     Davidson diagonalization with overlap
     ethr =  4.69E-04,  avg # of iterations =  4.6

     negative rho (up, down):  1.658E-05 0.000E+00

     total cpu time spent up to now is      861.6 secs

     total energy              =    -185.48274482 Ry
     estimated scf accuracy    <       0.24574168 Ry

     iteration #  3     ecut=    60.00 Ry     beta= 0.70
     Davidson diagonalization with overlap
     ethr =  4.69E-04,  avg # of iterations =  5.3

     negative rho (up, down):  1.300E-05 0.000E+00

     total cpu time spent up to now is      872.7 secs

     total energy              =    -185.53231718 Ry
     estimated scf accuracy    <       0.03262745 Ry

     iteration #  4     ecut=    60.00 Ry     beta= 0.70
     Davidson diagonalization with overlap
     ethr =  1.25E-04,  avg # of iterations =  3.3

     negative rho (up, down):  9.510E-06 0.000E+00

     total cpu time spent up to now is      882.4 secs

     total energy              =    -185.53592625 Ry
     estimated scf accuracy    <       0.00228203 Ry

     iteration #  5     ecut=    60.00 Ry     beta= 0.70
     Davidson diagonalization with overlap
     ethr =  8.78E-06,  avg # of iterations =  5.5

     negative rho (up, down):  9.776E-06 0.000E+00

     total cpu time spent up to now is      893.6 secs

     total energy              =    -185.53757163 Ry
     estimated scf accuracy    <       0.00611803 Ry

     iteration #  6     ecut=    60.00 Ry     beta= 0.70
     Davidson diagonalization with overlap
     ethr =  8.78E-06,  avg # of iterations =  2.2

     negative rho (up, down):  9.786E-06 0.000E+00

     total cpu time spent up to now is      901.9 secs

     total energy              =    -185.53673369 Ry
     estimated scf accuracy    <       0.00224217 Ry

     iteration #  7     ecut=    60.00 Ry     beta= 0.70
     Davidson diagonalization with overlap
     ethr =  8.62E-06,  avg # of iterations =  5.0

     negative rho (up, down):  9.701E-06 0.000E+00

     total cpu time spent up to now is      911.7 secs

     total energy              =    -185.53775335 Ry
     estimated scf accuracy    <       0.00174541 Ry

     iteration #  8     ecut=    60.00 Ry     beta= 0.70
     Davidson diagonalization with overlap
     ethr =  6.71E-06,  avg # of iterations =  1.2

     negative rho (up, down):  9.686E-06 0.000E+00

     total cpu time spent up to now is      919.5 secs

     total energy              =    -185.53743121 Ry
     estimated scf accuracy    <       0.00106087 Ry

     iteration #  9     ecut=    60.00 Ry     beta= 0.70
     Davidson diagonalization with overlap
     ethr =  4.08E-06,  avg # of iterations =  4.2

     negative rho (up, down):  9.732E-06 0.000E+00

     total cpu time spent up to now is      928.5 secs

     total energy              =    -185.53769069 Ry
     estimated scf accuracy    <       0.00002931 Ry

     iteration # 10     ecut=    60.00 Ry     beta= 0.70
     Davidson diagonalization with overlap
     ethr =  1.13E-07,  avg # of iterations =  5.7

     negative rho (up, down):  9.757E-06 0.000E+00

     total cpu time spent up to now is      939.7 secs

     total energy              =    -185.53766671 Ry
     estimated scf accuracy    <       0.00022117 Ry

     iteration # 11     ecut=    60.00 Ry     beta= 0.70
     Davidson diagonalization with overlap
     ethr =  1.13E-07,  avg # of iterations =  4.9

     negative rho (up, down):  9.750E-06 0.000E+00

     total cpu time spent up to now is      950.9 secs

     total energy              =    -185.53768195 Ry
     estimated scf accuracy    <       0.00001561 Ry

     iteration # 12     ecut=    60.00 Ry     beta= 0.70
     Davidson diagonalization with overlap
     ethr =  6.00E-08,  avg # of iterations =  4.4

     negative rho (up, down):  9.740E-06 0.000E+00

     total cpu time spent up to now is      961.5 secs

     total energy              =    -185.53768790 Ry
     estimated scf accuracy    <       0.00000144 Ry

     iteration # 13     ecut=    60.00 Ry     beta= 0.70
     Davidson diagonalization with overlap
     ethr =  5.55E-09,  avg # of iterations =  5.8

     negative rho (up, down):  9.733E-06 0.000E+00

     total cpu time spent up to now is      972.4 secs

     total energy              =    -185.53769062 Ry
     estimated scf accuracy    <       0.00001334 Ry

     iteration # 14     ecut=    60.00 Ry     beta= 0.70
     Davidson diagonalization with overlap
     ethr =  5.55E-09,  avg # of iterations =  4.0

     negative rho (up, down):  9.731E-06 0.000E+00

     total cpu time spent up to now is      982.2 secs

     total energy              =    -185.53768585 Ry
     estimated scf accuracy    <       0.00002443 Ry

     iteration # 15     ecut=    60.00 Ry     beta= 0.70
     Davidson diagonalization with overlap
     ethr =  5.55E-09,  avg # of iterations =  5.6

     negative rho (up, down):  9.734E-06 0.000E+00

     total cpu time spent up to now is      992.7 secs

     total energy              =    -185.53768696 Ry
     estimated scf accuracy    <       0.00000353 Ry

     iteration # 16     ecut=    60.00 Ry     beta= 0.70
     Davidson diagonalization with overlap
     ethr =  5.55E-09,  avg # of iterations =  2.0

     negative rho (up, down):  9.735E-06 0.000E+00

     total cpu time spent up to now is     1000.6 secs

     total energy              =    -185.53768675 Ry
     estimated scf accuracy    <       0.00000227 Ry

     iteration # 17     ecut=    60.00 Ry     beta= 0.70
     Davidson diagonalization with overlap
     ethr =  5.55E-09,  avg # of iterations =  3.2

     negative rho (up, down):  9.736E-06 0.000E+00

     total cpu time spent up to now is     1009.3 secs

     total energy              =    -185.53768686 Ry
     estimated scf accuracy    <       0.00000073 Ry

     iteration # 18     ecut=    60.00 Ry     beta= 0.70
     Davidson diagonalization with overlap
     ethr =  2.81E-09,  avg # of iterations =  3.4

     negative rho (up, down):  9.738E-06 0.000E+00

     total cpu time spent up to now is     1018.1 secs

     total energy              =    -185.53768690 Ry
     estimated scf accuracy    <       0.00000017 Ry

     iteration # 19     ecut=    60.00 Ry     beta= 0.70
     Davidson diagonalization with overlap
     ethr =  6.68E-10,  avg # of iterations =  5.1

     negative rho (up, down):  9.739E-06 0.000E+00

     total cpu time spent up to now is     1028.5 secs

     total energy              =    -185.53768692 Ry
     estimated scf accuracy    <       0.00000022 Ry

     iteration # 20     ecut=    60.00 Ry     beta= 0.70
     Davidson diagonalization with overlap
     ethr =  6.68E-10,  avg # of iterations =  5.5

     negative rho (up, down):  9.739E-06 0.000E+00

     total cpu time spent up to now is     1039.3 secs

     total energy              =    -185.53768697 Ry
     estimated scf accuracy    <       0.00000022 Ry

     iteration # 21     ecut=    60.00 Ry     beta= 0.70
     Davidson diagonalization with overlap
     ethr =  6.68E-10,  avg # of iterations =  3.4

     negative rho (up, down):  9.739E-06 0.000E+00

     total cpu time spent up to now is     1048.7 secs

     total energy              =    -185.53768700 Ry
     estimated scf accuracy    <          9.1E-09 Ry

     iteration # 22     ecut=    60.00 Ry     beta= 0.70
     Davidson diagonalization with overlap
     ethr =  3.51E-11,  avg # of iterations =  5.3

     negative rho (up, down):  9.740E-06 0.000E+00

     total cpu time spent up to now is     1059.0 secs

     total energy              =    -185.53768701 Ry
     estimated scf accuracy    <       0.00000006 Ry

     iteration # 23     ecut=    60.00 Ry     beta= 0.70
     Davidson diagonalization with overlap
     ethr =  3.51E-11,  avg # of iterations =  1.0

     negative rho (up, down):  9.740E-06 0.000E+00

     total cpu time spent up to now is     1067.2 secs

     total energy              =    -185.53768700 Ry
     estimated scf accuracy    <       0.00000006 Ry

     iteration # 24     ecut=    60.00 Ry     beta= 0.70
     Davidson diagonalization with overlap
     ethr =  3.51E-11,  avg # of iterations =  3.0

     negative rho (up, down):  9.740E-06 0.000E+00

     total cpu time spent up to now is     1076.2 secs

     total energy              =    -185.53768700 Ry
     estimated scf accuracy    <       0.00000003 Ry

     iteration # 25     ecut=    60.00 Ry     beta= 0.70
     Davidson diagonalization with overlap
     ethr =  3.51E-11,  avg # of iterations =  4.3

     negative rho (up, down):  9.740E-06 0.000E+00

     total cpu time spent up to now is     1086.2 secs

     total energy              =    -185.53768700 Ry
     estimated scf accuracy    <          1.1E-09 Ry

     iteration # 26     ecut=    60.00 Ry     beta= 0.70
     Davidson diagonalization with overlap
     ethr =  4.36E-12,  avg # of iterations =  5.1

     negative rho (up, down):  9.740E-06 0.000E+00

     total cpu time spent up to now is     1098.1 secs

     total energy              =    -185.53768700 Ry
     estimated scf accuracy    <          3.2E-10 Ry

     iteration # 27     ecut=    60.00 Ry     beta= 0.70
     Davidson diagonalization with overlap
     ethr =  1.24E-12,  avg # of iterations =  8.6

     negative rho (up, down):  9.740E-06 0.000E+00

     total cpu time spent up to now is     1113.8 secs

     total energy              =    -185.53768700 Ry
     estimated scf accuracy    <       0.00000002 Ry

     iteration # 28     ecut=    60.00 Ry     beta= 0.70
     Davidson diagonalization with overlap
     ethr =  1.24E-12,  avg # of iterations =  8.7

     negative rho (up, down):  9.740E-06 0.000E+00

     total cpu time spent up to now is     1129.6 secs

     total energy              =    -185.53768700 Ry
     estimated scf accuracy    <          9.2E-10 Ry

     iteration # 29     ecut=    60.00 Ry     beta= 0.70
     Davidson diagonalization with overlap
     ethr =  1.24E-12,  avg # of iterations =  1.0

     negative rho (up, down):  9.740E-06 0.000E+00

     total cpu time spent up to now is     1137.4 secs

     total energy              =    -185.53768700 Ry
     estimated scf accuracy    <          6.3E-10 Ry

     iteration # 30     ecut=    60.00 Ry     beta= 0.70
     Davidson diagonalization with overlap
     ethr =  1.24E-12,  avg # of iterations =  5.7

     negative rho (up, down):  9.740E-06 0.000E+00

     total cpu time spent up to now is     1148.2 secs

     total energy              =    -185.53768700 Ry
     estimated scf accuracy    <          1.3E-10 Ry

     iteration # 31     ecut=    60.00 Ry     beta= 0.70
     Davidson diagonalization with overlap
     ethr =  4.88E-13,  avg # of iterations =  1.7

     negative rho (up, down):  9.740E-06 0.000E+00

     total cpu time spent up to now is     1156.2 secs

     End of self-consistent calculation

          k = 0.0000 0.0000 0.0000 ( 20067 PWs)   bands (ev):

   -64.4927 -38.6392 -38.4328 -38.4328 -17.7174 -16.4176  -9.2391  -6.2298
    -6.2298  -5.4090  -5.1183  -5.1183  -3.6466

          k =-0.0000 0.1444 0.0000 ( 20065 PWs)   bands (ev):

   -64.4871 -38.6282 -38.4889 -38.4456 -17.4904 -16.3243  -8.9869  -6.7042
    -6.2108  -5.9925  -5.4590  -4.6988  -3.7813

          k =-0.0000 0.2887 0.0000 ( 20007 PWs)   bands (ev):

   -64.4737 -38.6225 -38.6016 -38.4763 -16.8918 -16.0796  -8.6141  -7.4318
    -7.1953  -6.1007  -5.4003  -4.9545  -4.3543

          k =-0.0000 0.4331 0.0000 ( 19915 PWs)   bands (ev):

   -64.4603 -38.7533 -38.5747 -38.5068 -16.1868 -15.7999  -9.0598  -8.0539
    -7.5579  -6.6016  -5.3668  -4.8108  -4.5507

          k = 0.0000-0.5775-0.0000 ( 19936 PWs)   bands (ev):

   -64.4547 -38.8067 -38.5636 -38.5194 -15.8451 -15.6704  -9.3943  -8.4120
    -7.6928  -6.7832  -5.5066  -4.5879  -4.2615

          k = 0.1250 0.2165 0.0000 ( 20061 PWs)   bands (ev):

   -64.4777 -38.6094 -38.5775 -38.4736 -17.0763 -16.1538  -8.6293  -7.2761
    -6.7783  -6.2856  -5.6497  -4.5572  -4.1534

          k = 0.1250 0.3609 0.0000 ( 20005 PWs)   bands (ev):

   -64.4643 -38.6960 -38.5826 -38.5178 -16.4125 -15.8816  -8.6953  -7.7186
    -7.4272  -6.7999  -5.5586  -4.9181  -4.4397

          k = 0.1250 0.5053 0.0000 ( 19911 PWs)   bands (ev):

   -64.4547 -38.7778 -38.5636 -38.5496 -15.8591 -15.6594  -9.1025  -8.4801
    -7.5596  -6.8073  -5.5424  -5.4079  -4.1116

          k = 0.2500 0.4331 0.0000 ( 19957 PWs)   bands (ev):

   -64.4548 -38.7380 -38.5907 -38.5637 -15.8729 -15.6483  -8.7345  -8.5410
    -7.2278  -6.8580  -6.5318  -5.2652  -4.1450

          k = 0.2500 0.5775 0.0000 ( 19884 PWs)   bands (ev):

   -64.4508 -38.7425 -38.6338 -38.5558 -15.6268 -15.5376  -8.9305  -8.5690
    -7.5184  -6.8453  -6.6170  -5.6603  -3.7719

     highest occupied level (ev):    -3.6466

!    total energy              =    -185.53768700 Ry
     estimated scf accuracy    <          7.0E-11 Ry

     The total energy is the sum of the following terms:
     one-electron contribution =   -3058.14592425 Ry
     hartree contribution      =    1526.49121922 Ry
     xc contribution           =     -32.56224155 Ry
     ewald contribution        =    1378.67925959 Ry

     convergence has been achieved in  31 iterations

     negative rho (up, down):  9.740E-06 0.000E+00

     Forces acting on atoms (cartesian axes, Ry/au):

     atom    1 type  1   force =     0.00000000   -0.00000000   -0.00000000
     atom    2 type  2   force =     0.00000000   -0.00000000   -0.00034023
     atom    3 type  2   force =    -0.00000000   -0.00000000    0.00034023

     Total force =     0.000481     Total SCF correction =     0.000020


     Computing stress (Cartesian axis) and pressure


     negative rho (up, down):  9.740E-06 0.000E+00
          total   stress  (Ry/bohr**3)                   (kbar)     P=        0.27
   0.00000332  -0.00000000   0.00000000            0.49       -0.00        0.00
   0.00000000   0.00000332   0.00000000            0.00        0.49        0.00
   0.00000000   0.00000000  -0.00000104            0.00        0.00       -0.15


     Writing all to output data dir /tmp/MoS2_single.save/ :
     XML data file, charge density, pseudopotentials, collected wavefunctions

     init_run     :      8.40s CPU      9.89s WALL (       2 calls)
     electrons    :    907.67s CPU   1027.31s WALL (       7 calls)
     update_pot   :      2.25s CPU      2.71s WALL (       5 calls)
     forces       :     20.36s CPU     25.34s WALL (       7 calls)
     stress       :     87.35s CPU    101.22s WALL (       7 calls)

     Called by init_run:
     wfcinit      :      4.79s CPU      4.85s WALL (       2 calls)
     potinit      :      0.84s CPU      1.03s WALL (       2 calls)
     hinit0       :      0.69s CPU      0.76s WALL (       2 calls)

     Called by electrons:
     c_bands      :    579.69s CPU    582.27s WALL (      99 calls)
     sum_band     :    194.13s CPU    252.11s WALL (      99 calls)
     v_of_rho     :     34.10s CPU     40.71s WALL (     102 calls)
     newd         :     98.53s CPU    155.30s WALL (     102 calls)
     mix_rho      :      6.45s CPU      6.50s WALL (      99 calls)

     Called by c_bands:
     init_us_2    :     16.07s CPU     16.18s WALL (    2140 calls)
     cegterg      :    551.24s CPU    553.74s WALL (     990 calls)

     Called by *egterg:
     cdiaghg      :      0.66s CPU      0.70s WALL (    5345 calls)
     h_psi        :    433.86s CPU    435.92s WALL (    5455 calls)
     s_psi        :     35.38s CPU     35.52s WALL (    5455 calls)
     g_psi        :      1.74s CPU      1.79s WALL (    4445 calls)

     Called by h_psi:
     h_psi:calbec :     55.52s CPU     55.62s WALL (    5455 calls)
     vloc_psi     :    341.88s CPU    343.74s WALL (    5455 calls)
     add_vuspsi   :     35.08s CPU     35.21s WALL (    5455 calls)

     General routines
     calbec       :     90.94s CPU     91.15s WALL (    7635 calls)
     fft          :     29.35s CPU     29.38s WALL (    1496 calls)
     ffts         :      0.87s CPU      0.88s WALL (     201 calls)
     fftw         :    273.46s CPU    274.56s WALL (   97914 calls)
     interpolate  :      2.98s CPU      2.99s WALL (     102 calls)


     PWSCF        :  17m11.27s CPU  19m34.64s WALL


   This run was terminated on:  21:26:10  21Jul2025            

=------------------------------------------------------------------------------=
   JOB DONE.
=------------------------------------------------------------------------------=
